/*--------------------------------*- C++ -*----------------------------------*\
| =========                 |                                                 |
| \\      /  F ield         | OpenFOAM: The Open Source CFD Toolbox           |
|  \\    /   O peration     | Version:  2.2.1                                 |
|   \\  /    A nd           | Web:      www.OpenFOAM.org                      |
|    \\/     M anipulation  |                                                 |
\*---------------------------------------------------------------------------*/
FoamFile
{
    version     2.0;
    format      ascii;
    class       polyBoundaryMesh;
    location    "constant/polyMesh";
    object      boundary;
}
// * * * * * * * * * * * * * * * * * * * * * * * * * * * * * * * * * * * * * //

4
(
    inlet
    {
        type            patch;
        nFaces          5;
        startFace       445;
    }
    outlet
    {
        type            patch;
        nFaces          5;
        startFace       450;
    }
    walls
    {
        type            wall;
        nFaces          100;
        startFace       455;
    }
    frontAndRear
    {
        type            empty;
        inGroups        1(empty);
        nFaces          500;
        startFace       555;
    }
)

// ************************************************************************* //
